14
	Energy:      26.5024903
C          0.12618       -1.36622        0.04185
C         -1.17337       -0.84626        0.00976
C         -1.32766        0.55084        0.02999
C         -0.21681        1.39904       -0.01423
C          1.06813        0.85961       -0.03741
C          1.23962       -0.52211       -0.00130
H          0.28239       -2.44016        0.10538
H         -0.34400        2.47817       -0.02026
H          1.93408        1.51601       -0.06539
H          2.24064       -0.94604        0.00894
N         -2.26063       -1.72154        0.18321
H         -2.11221       -2.64601       -0.20741
H         -3.14340       -1.30860       -0.10916
Br        -3.05546        1.34238        0.08030
